# vtk DataFile Version 3.0
test.vtk                                                                        
ASCII
DATASET UNSTRUCTURED_GRID
 POINTS        16641  double
   -2.000000000000000E+01   -2.000000000000000E+01    0.000000000000000E+00
   -1.976562500000000E+01   -2.000000000000000E+01    0.000000000000000E+00
   -1.953125000000000E+01   -2.000000000000000E+01    0.000000000000000E+00
   -1.929687500000000E+01   -2.000000000000000E+01    0.000000000000000E+00
   -1.906250000000000E+01   -2.000000000000000E+01    0.000000000000000E+00
   -1.882812500000000E+01   -2.000000000000000E+01    0.000000000000000E+00
   -1.859375000000000E+01   -2.000000000000000E+01    0.000000000000000E+00
   -1.835937500000000E+01   -2.000000000000000E+01    0.000000000000000E+00
   -1.812500000000000E+01   -2.000000000000000E+01    0.000000000000000E+00
   -1.789062500000000E+01   -2.000000000000000E+01    0.000000000000000E+00
   -1.765625000000000E+01   -2.000000000000000E+01    0.000000000000000E+00
   -1.742187500000000E+01   -2.000000000000000E+01    0.000000000000000E+00
   -1.718750000000000E+01   -2.000000000000000E+01    0.000000000000000E+00
   -1.695312500000000E+01   -2.000000000000000E+01    0.000000000000000E+00
   -1.671875000000000E+01   -2.000000000000000E+01    0.000000000000000E+00
   -1.648437500000000E+01   -2.000000000000000E+01    0.000000000000000E+00
   -1.625000000000000E+01   -2.000000000000000E+01    0.000000000000000E+00
   -1.601562500000000E+01   -2.000000000000000E+01    0.000000000000000E+00
   -1.578125000000000E+01   -2.000000000000000E+01    0.000000000000000E+00
   -1.554687500000000E+01   -2.000000000000000E+01    0.000000000000000E+00
   -1.531250000000000E+01   -2.000000000000000E+01    0.000000000000000E+00
   -1.507812500000000E+01   -2.000000000000000E+01    0.000000000000000E+00
   -1.484375000000000E+01   -2.000000000000000E+01    0.000000000000000E+00
   -1.460937500000000E+01   -2.000000000000000E+01    0.000000000000000E+00
   -1.437500000000000E+01   -2.000000000000000E+01    0.000000000000000E+00
   -1.414062500000000E+01   -2.000000000000000E+01    0.000000000000000E+00
   -1.390625000000000E+01   -2.000000000000000E+01    0.000000000000000E+00
   -1.367187500000000E+01   -2.000000000000000E+01    0.000000000000000E+00
   -1.343750000000000E+01   -2.000000000000000E+01    0.000000000000000E+00
   -1.320312500000000E+01   -2.000000000000000E+01    0.000000000000000E+00
   -1.296875000000000E+01   -2.000000000000000E+01    0.000000000000000E+00
   -1.273437500000000E+01   -2.000000000000000E+01    0.000000000000000E+00
   -1.250000000000000E+01   -2.000000000000000E+01    0.000000000000000E+00
   -1.226562500000000E+01   -2.000000000000000E+01    0.000000000000000E+00
   -1.203125000000000E+01   -2.000000000000000E+01    0.000000000000000E+00
   -1.179687500000000E+01   -2.000000000000000E+01    0.000000000000000E+00
   -1.156250000000000E+01   -2.000000000000000E+01    0.000000000000000E+00
   -1.132812500000000E+01   -2.000000000000000E+01    0.000000000000000E+00
   -1.109375000000000E+01   -2.000000000000000E+01    0.000000000000000E+00
   -1.085937500000000E+01   -2.000000000000000E+01    0.000000000000000E+00
   -1.062500000000000E+01   -2.000000000000000E+01    0.000000000000000E+00
   -1.039062500000000E+01   -2.000000000000000E+01    0.000000000000000E+00
   -1.015625000000000E+01   -2.000000000000000E+01    0.000000000000000E+00
   -9.921875000000000E+00   -2.000000000000000E+01    0.000000000000000E+00
   -9.687500000000000E+00   -2.000000000000000E+01    0.000000000000000E+00
   -9.453125000000000E+00   -2.000000000000000E+01    0.000000000000000E+00
   -9.218750000000000E+00   -2.000000000000000E+01    0.000000000000000E+00
   -8.984375000000000E+00   -2.000000000000000E+01    0.000000000000000E+00
   -8.750000000000000E+00   -2.000000000000000E+01    0.000000000000000E+00
   -8.515625000000000E+00   -2.000000000000000E+01    0.000000000000000E+00
   -8.281250000000000E+00   -2.000000000000000E+01    0.000000000000000E+00
   -8.046875000000000E+00   -2.000000000000000E+01    0.000000000000000E+00
   -7.812500000000000E+00   -2.000000000000000E+01    0.000000000000000E+00
   -7.578125000000000E+00   -2.000000000000000E+01    0.000000000000000E+00
   -7.343750000000000E+00   -2.000000000000000E+01    0.000000000000000E+00
   -7.109375000000000E+00   -2.000000000000000E+01    0.000000000000000E+00
   -6.875000000000000E+00   -2.000000000000000E+01    0.000000000000000E+00
   -6.640625000000000E+00   -2.000000000000000E+01    0.000000000000000E+00
   -6.406250000000000E+00   -2.000000000000000E+01    0.000000000000000E+00
   -6.171875000000000E+00   -2.000000000000000E+01    0.000000000000000E+00
   -5.937500000000000E+00   -2.000000000000000E+01    0.000000000000000E+00
   -5.703125000000000E+00   -2.000000000000000E+01    0.000000000000000E+00
   -5.468750000000000E+00   -2.000000000000000E+01    0.000000000000000E+00
   -5.234375000000000E+00   -2.000000000000000E+01    0.000000000000000E+00
   -5.000000000000000E+00   -2.000000000000000E+01    0.000000000000000E+00
   -4.765625000000000E+00   -2.000000000000000E+01    0.000000000000000E+00
   -4.531250000000000E+00   -2.000000000000000E+01    0.000000000000000E+00
   -4.296875000000000E+00   -2.000000000000000E+01    0.000000000000000E+00
   -4.062500000000000E+00   -2.000000000000000E+01    0.000000000000000E+00
   -3.828125000000000E+00   -2.000000000000000E+01    0.000000000000000E+00
   -3.593750000000000E+00   -2.000000000000000E+01    0.000000000000000E+00
   -3.359375000000000E+00   -2.000000000000000E+01    0.000000000000000E+00
   -3.125000000000000E+00   -2.000000000000000E+01    0.000000000000000E+00
   -2.890625000000000E+00   -2.000000000000000E+01    0.000000000000000E+00
   -2.656250000000000E+00   -2.000000000000000E+01    0.000000000000000E+00
   -2.421875000000000E+00   -2.000000000000000E+01    0.000000000000000E+00
   -2.187500000000000E+00   -2.000000000000000E+01    0.000000000000000E+00
   -1.953125000000000E+00   -2.000000000000000E+01    0.000000000000000E+00
   -1.718750000000000E+00   -2.000000000000000E+01    0.000000000000000E+00
   -1.484375000000000E+00   -2.000000000000000E+01    0.000000000000000E+00
   -1.250000000000000E+00   -2.000000000000000E+01    0.000000000000000E+00
   -1.015625000000000E+00   -2.000000000000000E+01    0.000000000000000E+00
   -7.812500000000000E-01   -2.000000000000000E+01    0.000000000000000E+00
   -5.468750000000000E-01   -2.000000000000000E+01    0.000000000000000E+00
   -3.125000000000000E-01   -2.000000000000000E+01    0.000000000000000E+00
   -7.812500000000000E-02   -2.000000000000000E+01    0.000000000000000E+00
    1.562500000000000E-01   -2.000000000000000E+01    0.000000000000000E+00
    3.906250000000000E-01   -2.000000000000000E+01    0.000000000000000E+00
    6.250000000000000E-01   -2.000000000000000E+01    0.000000000000000E+00
    8.593750000000000E-01   -2.000000000000000E+01    0.000000000000000E+00
    1.093750000000000E+00   -2.000000000000000E+01    0.000000000000000E+00
    1.328125000000000E+00   -2.000000000000000E+01    0.000000000000000E+00
    1.562500000000000E+00   -2.000000000000000E+01    0.000000000000000E+00
    1.796875000000000E+00   -2.000000000000000E+01    0.000000000000000E+00
    2.031250000000000E+00   -2.000000000000000E+01    0.000000000000000E+00
    2.265625000000000E+00   -2.000000000000000E+01    0.000000000000000E+00
    2.500000000000000E+00   -2.000000000000000E+01    0.000000000000000E+00
    2.734375000000000E+00   -2.000000000000000E+01    0.000000000000000E+00
    2.968750000000000E+00   -2.000000000000000E+01    0.000000000000000E+00
    3.203125000000000E+00   -2.000000000000000E+01    0.000000000000000E+00
    3.437500000000000E+00   -2.000000000000000E+01    0.000000000000000E+00
    3.671875000000000E+00   -2.000000000000000E+01    0.000000000000000E+00
    3.906250000000000E+00   -2.000000000000000E+01    0.000000000000000E+00
    4.140625000000000E+00   -2.000000000000000E+01    0.000000000000000E+00
    4.375000000000000E+00   -2.000000000000000E+01    0.000000000000000E+00
    4.609375000000000E+00   -2.000000000000000E+01    0.000000000000000E+00
    4.843750000000000E+00   -2.000000000000000E+01    0.000000000000000E+00
    5.078125000000000E+00   -2.000000000000000E+01    0.000000000000000E+00
    5.312500000000000E+00   -2.000000000000000E+01    0.000000000000000E+00
    5.546875000000000E+00   -2.000000000000000E+01    0.000000000000000E+00
    5.781250000000000E+00   -2.000000000000000E+01    0.000000000000000E+00
    6.015625000000000E+00   -2.000000000000000E+01    0.000000000000000E+00
    6.250000000000000E+00   -2.000000000000000E+01    0.000000000000000E+00
    6.484375000000000E+00   -2.000000000000000E+01    0.000000000000000E+00
    6.718750000000000E+00   -2.000000000000000E+01    0.000000000000000E+00
    6.953125000000000E+00   -2.000000000000000E+01    0.000000000000000E+00
    7.187500000000000E+00   -2.000000000000000E+01    0.000000000000000E+00
    7.421875000000000E+00   -2.000000000000000E+01    0.000000000000000E+00
    7.656250000000000E+00   -2.000000000000000E+01    0.000000000000000E+00
    7.890625000000000E+00   -2.000000000000000E+01    0.000000000000000E+00
    8.125000000000000E+00   -2.000000000000000E+01    0.000000000000000E+00
    8.359375000000000E+00   -2.000000000000000E+01    0.000000000000000E+00
    8.593750000000000E+00   -2.000000000000000E+01    0.000000000000000E+00
    8.828125000000000E+00   -2.000000000000000E+01    0.000000000000000E+00
    9.062500000000000E+00   -2.000000000000000E+01    0.000000000000000E+00
    9.296875000000000E+00   -2.000000000000000E+01    0.000000000000000E+00
    9.531250000000000E+00   -2.000000000000000E+01    0.000000000000000E+00
    9.765625000000000E+00   -2.000000000000000E+01    0.000000000000000E+00
    1.000000000000000E+01   -2.000000000000000E+01    0.000000000000000E+00
[...]
 POINT_DATA          16641
 FIELD  FlowField            4
 Density              1       16641  double
    1.077162425660640E+00
    1.166536999060836E+00
    1.119094980052600E+00
    1.074665324352006E+00
    1.181132357589601E+00
    1.084120040519684E+00
    1.106534343524313E+00
    1.173769149764417E+00
    1.062033078844830E+00
    1.143240187626654E+00
    1.147092218578131E+00
    1.060767667895446E+00
    1.171598223429109E+00
    1.110683840695201E+00
    1.080778339631257E+00
    1.181422326342528E+00
    1.077621800338325E+00
    1.114877318536585E+00
    1.169183706963107E+00
    1.059781886951903E+00
    1.150816349834129E+00
    1.139278442038404E+00
    1.063572145919586E+00
    1.175686237239629E+00
    1.102448416391357E+00
    1.087631127162864E+00
    1.180553788997658E+00
    1.071922868904212E+00
    1.123316914078653E+00
    1.163670594569614E+00
    1.058666488105550E+00
    1.157811275033490E+00
    1.131101048651393E+00
    1.067440927706389E+00
    1.178723935159379E+00
    1.094544038106890E+00
    1.095094434334374E+00
    1.178543127315016E+00
    1.067130735581731E+00
    1.131693948245812E+00
    1.157333797156095E+00
    1.058707920199346E+00
    1.164093029708376E+00
    1.122714274843283E+00
    1.072301042928000E+00
    1.180654022198525E+00
    1.087119792843014E+00
    1.103027493327589E+00
    1.175428265026217E+00
    1.063335786326698E+00
    1.139850419123416E+00
    1.150292835080721E+00
    1.059905401769356E+00
    1.169543131679284E+00
    1.114276306231191E+00
    1.078060823400291E+00
    1.181440094369505E+00
    1.080315711658822E+00
    1.111280676185297E+00
    1.171267952542886E+00
    1.060609598888038E+00
    1.147632484911411E+00
    1.142680510176057E+00
    1.062236346733552E+00
    1.174058784833741E+00
    1.105946294033779E+00
    1.084611632065760E+00
    1.181067325314261E+00
    1.074260128500801E+00
    1.119698316991923E+00
    1.166140658846384E+00
    1.059003592756992E+00
    1.154893365583612E+00
    1.134640400931321E+00
    1.065656790395132E+00
    1.177554817996595E+00
    1.097881353269312E+00
    1.091829912031721E+00
    1.179542745948897E+00
    1.069067259655305E+00
    1.128121647938035E+00
    1.160143091459302E+00
    1.058548059327693E+00
    1.161496111352620E+00
    1.126324154412679E+00
    1.070102218674684E+00
    1.179965291370734E+00
    1.090233599359178E+00
    1.099579517016288E+00
    1.176895111851335E+00
    1.064835049478741E+00
    1.136391793890665E+00
    1.153388372414029E+00
    1.059251590561515E+00
    1.167316185723461E+00
    1.117888625999540E+00
    1.075488784930836E+00
    1.181244740248634E+00
    1.083147279030371E+00
    1.107714279246850E+00
    1.173174360893186E+00
    1.061643323037806E+00
    1.144352768987893E+00
    1.146003904622000E+00
    1.061100916931358E+00
    1.172243814416171E+00
    1.109492920885190E+00
    1.081714891418507E+00
    1.181369032536719E+00
    1.076756049631947E+00
    1.116080766377067E+00
    1.168450671345606E+00
    1.059552280503418E+00
    1.151854418737957E+00
    1.138128968886712E+00
    1.064061157702410E+00
    1.176186055853505E+00
    1.101295393142969E+00
    1.088663105556405E+00
    1.180335823918485E+00
    1.071180458181117E+00
    1.124521175423324E+00
    1.162813138224547E+00
    1.058601361696099E+00
    1.158755252131050E+00
    1.129912096884067E+00
    1.068076478828841E+00
    1.179068554161695E+00
    1.216856140723549E+00
    1.170457742770071E+00
    1.147329323499435E+00
    1.094081119853954E+00
    1.127104035150451E+00
    1.136481134810659E+00
    1.091000696894500E+00
    1.142044580760455E+00
    1.119712970079774E+00
    1.098336739888076E+00
    1.149066776605131E+00
    1.103047905667561E+00
    1.113454163370916E+00
    1.145648270210515E+00
    1.092471984598002E+00
    1.130922832472760E+00
    1.133016979204144E+00
    1.091784047186053E+00
    1.144468051685164E+00
    1.115710026848330E+00
    1.101231198563980E+00
    1.149224417372768E+00
    1.099944020463221E+00
    1.117420049231238E+00
    1.143483456712462E+00
    1.091382064025090E+00
    1.134535610766184E+00
    1.129307306198974E+00
    1.093099587567704E+00
    1.146430022878969E+00
    1.111787998169485E+00
    1.104479661593136E+00
    1.148830847078453E+00
    1.097218417489048E+00
    1.121434596366304E+00
    1.140875714243482E+00
    1.090831915474952E+00
    1.137874228266447E+00
    1.125422085121506E+00
    1.094922505212508E+00
    1.147893488977095E+00
    1.108020858677720E+00
    1.108020858677721E+00
    1.147893488977093E+00
    1.094922505212506E+00
    1.125422085121506E+00
    1.137874228266447E+00
    1.090831915474952E+00
    1.140875714243482E+00
    1.121434596366302E+00
    1.097218417489048E+00
    1.148830847078451E+00
    1.104479661593134E+00
    1.111787998169485E+00
    1.146430022878967E+00
    1.093099587567703E+00
    1.129307306198976E+00
    1.134535610766183E+00
    1.091382064025090E+00
    1.143483456712461E+00
    1.117420049231236E+00
    1.099944020463223E+00
    1.149224417372769E+00
    1.101231198563979E+00
    1.115710026848330E+00
    1.144468051685162E+00
    1.091784047186054E+00
    1.133016979204146E+00
    1.130922832472759E+00
    1.092471984598002E+00
    1.145648270210515E+00
    1.113454163370915E+00
    1.103047905667563E+00
    1.149066776605132E+00
    1.098336739888074E+00
    1.119712970079774E+00
    1.142044580760453E+00
    1.091000696894500E+00
    1.136481134810661E+00
    1.127104035150449E+00
    1.094081119853954E+00
    1.147329323499435E+00
    1.109611740624116E+00
    1.106471529732737E+00
    1.148360898088364E+00
    1.095850878874165E+00
    1.123721327074138E+00
    1.139205319963313E+00
    1.090764311712870E+00
    1.139634434474169E+00
    1.123151246354178E+00
    1.096179119379386E+00
    1.148494909696693E+00
    1.105965254152432E+00
    1.110150318592731E+00
    1.147120095622424E+00
    1.093820502140105E+00
    1.127659494931033E+00
    1.136003821497680E+00
    1.091079350177506E+00
    1.142417402803461E+00
    1.119139020894818E+00
    1.098726412135755E+00
    1.149123044309071E+00
    1.102583481500847E+00
    1.114014885436907E+00
    1.145367772378578E+00
    1.092283905269394E+00
    1.131453194609791E+00
    1.132500469847753E+00
    1.091939870247395E+00
    1.144777549344796E+00
    1.115143034637110E+00
    1.101674952821506E+00
    1.149201879889198E+00
    1.099530207362509E+00
    1.117992339436785E+00
    1.143136979484719E+00
    1.091270070505960E+00
    1.135030871930152E+00
    1.128761342846969E+00
    1.093329641378897E+00
    1.146670358621103E+00
    1.111238657153031E+00
    1.104969128069848E+00
    1.148729929494040E+00
    1.096863020515281E+00
    1.122007660563216E+00
    1.140469792637491E+00
    1.093992105266871E+00
    1.134607672774316E+00
    1.096346691455908E+00
    1.122865736664303E+00
    1.139846163412740E+00
    1.090768538475498E+00
    1.138987975749979E+00
    1.124005843158654E+00
    1.095690242081968E+00
    1.148289788765515E+00
    1.106726635607052E+00
    1.109343940549085E+00
    1.147429991330545E+00
    1.094215182224517E+00
    1.126825264806381E+00
    1.136717420201426E+00
    1.090965560944852E+00
    1.141854973650115E+00
    1.120000000000000E+00
    1.098145026349886E+00
    1.149034439055148E+00
    1.103282579798574E+00
    1.113174735193620E+00
    1.145784817775483E+00
    1.092570008669455E+00
    1.130656059450916E+00
    1.133273364392947E+00
    1.091710211234485E+00
    1.144309757918033E+00
    1.115994156841345E+00
    1.101012024250021E+00
    1.149231461524500E+00
    1.100153836587258E+00
    1.117134263335698E+00
    1.143653308544092E+00
    1.091442200934142E+00
    1.134285866757662E+00
    1.129578955422952E+00
    1.092988444257658E+00
    1.146306028084300E+00
    1.112063869168821E+00
    1.104237160420084E+00
    1.148877140069905E+00
    1.097399418197238E+00
    1.121147843051494E+00
    1.141075666712174E+00
    1.090853030960170E+00
    1.137646223772688E+00
    1.125703874717958E+00
    1.094776150853424E+00
    1.147806131860282E+00
    1.108283267392428E+00
    1.107759604537589E+00
    1.147978157661383E+00
    1.095071276592732E+00
    1.125139772933205E+00
    1.138100510004884E+00
    1.090813611270431E+00
    1.140673749730001E+00
    1.121721211411728E+00
    1.097039612517198E+00
    1.148781775309951E+00
    1.104723658648704E+00
    1.111512918659977E+00
    1.146551470293021E+00
    1.093213323595489E+00
    1.129034759917455E+00
    1.134783953802287E+00
    1.091324685372272E+00
    1.143311341496396E+00
    1.117706083787801E+00
    1.099736137376238E+00
    1.149214556510865E+00
    1.101452181854084E+00
    1.115426310331855E+00
    1.144623987170546E+00
    1.091860602649882E+00
    1.132759339411794E+00
    1.131188552729275E+00
    1.092376613733967E+00
    1.145509250611880E+00
    1.113734222449570E+00
    1.102814865414685E+00
    1.149096312638687E+00
    1.098530541376360E+00
    1.119425967824088E+00
    1.142232063168217E+00
    1.091038627857339E+00
    1.136243260933818E+00
    1.127382120792825E+00
    1.093949555599004E+00
    1.147226021611245E+00
    1.109880541941209E+00
    1.106217727760543E+00
    1.148429273928826E+00
    1.096013843208919E+00
    1.123436452320372E+00
    1.139420813127936E+00
    1.090762902746726E+00
    1.139420813127936E+00
    1.123436452320371E+00
    1.096013843208918E+00
    1.148429273928825E+00
    1.106217727760543E+00
    1.109880541941209E+00
    1.147226021611244E+00
    1.093949555599004E+00
    1.127382120792825E+00
    1.136243260933818E+00
    1.091038627857341E+00
    1.142232063168218E+00
    1.119425967824088E+00
    1.098530541376361E+00
    1.149096312638688E+00
    1.102814865414685E+00
    1.113734222449571E+00
    1.145509250611881E+00
    1.092376613733967E+00
    1.131188552729275E+00
    1.132759339411794E+00
    1.091860602649882E+00
    1.144623987170546E+00
    1.115426310331855E+00
    1.101452181854084E+00
    1.149214556510865E+00
    1.099736137376239E+00
    1.117706083787801E+00
    1.143311341496396E+00
    1.091324685372272E+00
    1.078625579471011E+00
    1.053550342194628E+00
    1.118565403633698E+00
    1.142781582510950E+00
    1.091169152921549E+00
    1.135520338406867E+00
    1.128212001830515E+00
    1.093569977121033E+00
    1.146900412432296E+00
    1.110692693801025E+00
    1.105464389233819E+00
    1.148617935974910E+00
    1.096516543287538E+00
    1.122579950768762E+00
    1.140055979536775E+00
    1.090775582627232E+00
    1.138768801436022E+00
    1.124289973151670E+00
    1.095531948314837E+00
    1.148215952813945E+00
    1.106983020795856E+00
    1.109077167527244E+00
    1.147528015401999E+00
    1.094351729789485E+00
    1.126545836629083E+00
    1.136952094332437E+00
    1.090933223394871E+00
    1.141663260111927E+00
    1.120287029920226E+00
    1.097955419239546E+00
    1.148999303105499E+00
    1.103518865189339E+00
    1.112895964849550E+00
    1.145918880146045E+00
    1.092670676500565E+00
    1.130388259375882E+00
    1.133528470267263E+00
    1.091639101911638E+00
    1.144149121125833E+00
    1.116278672925860E+00
    1.100794680036687E+00
    1.149235688287130E+00
    1.100365565525831E+00
    1.116848753645822E+00
    1.143820880620612E+00
    1.091505090303307E+00
    1.134034745847569E+00
    1.129849681407270E+00
    1.092879904377578E+00
    1.146179497859894E+00
    1.112340505068967E+00
    1.103996178502323E+00
    1.148920649822494E+00
    1.097582597196540E+00
    1.120860979105184E+00
    1.141273587864245E+00
    1.090876955690930E+00
    1.137416518499154E+00
    1.125985114563094E+00
    1.094632227621423E+00
    1.147716094730605E+00
    1.108546805390210E+00
    1.107499530152248E+00
    1.148060129752603E+00
    1.095222450655206E+00
    1.124856965362891E+00
    1.138325047178493E+00
    1.090798120110803E+00
    1.140469792637491E+00
    1.122007660563215E+00
    1.096863020515282E+00
    1.148729929494040E+00
    1.104969128069848E+00
    1.111238657153032E+00
    1.146670358621103E+00
    1.093329641378898E+00
    1.128761342846969E+00
    1.135030871930151E+00
    1.091270070505960E+00
    1.143136979484718E+00
    1.117992339436784E+00
    1.099530207362510E+00
    1.149201879889197E+00
    1.101674952821506E+00
    1.115143034637111E+00
    1.144777549344794E+00
    1.091939870247397E+00
    1.132500469847754E+00
    1.131453194609790E+00
    1.092283905269396E+00
    1.145367772378578E+00
    1.114014885436907E+00
    1.102583481500848E+00
    1.149123044309070E+00
    1.098726412135755E+00
    1.119139020894818E+00
    1.142417402803460E+00
    1.091079350177506E+00
    1.136003821497679E+00
    1.127659494931032E+00
    1.093820502140106E+00
    1.147120095622424E+00
    1.110150318592731E+00
    1.105965254152434E+00
    1.148494909696693E+00
    1.096179119379388E+00
    1.123151246354179E+00
    1.139634434474169E+00
    1.090764311712870E+00
    1.139205319963313E+00
    1.123721327074137E+00
    1.095850878874166E+00
    1.148360898088363E+00
    1.106471529732737E+00
    1.109611740624117E+00
    1.147329323499434E+00
    1.094081119853954E+00
    1.127104035150450E+00
    1.136481134810659E+00
    1.091000696894501E+00
    1.142044580760453E+00
    1.119712970079773E+00
    1.098336739888076E+00
    1.149066776605132E+00
    1.103047905667563E+00
    1.113454163370916E+00
    1.145648270210514E+00
    1.092471984598002E+00
    1.130922832472760E+00
    1.191303009701609E+00
    1.178138841894139E+00
    1.145223849146576E+00
    1.092193868139720E+00
    1.131716732607574E+00
    1.132240395462411E+00
    1.092021842338617E+00
    1.144928723407267E+00
    1.114860227066795E+00
    1.101899489995117E+00
    1.149186388729570E+00
    1.099326250269999E+00
    1.118278788588272E+00
    1.142960387482802E+00
    1.091218224690050E+00
    1.135276341351298E+00
    1.128487081340023E+00
    1.093448529706979E+00
    1.146786676404512E+00
    1.110965240082546E+00
    1.105216046197715E+00
    1.148675314627729E+00
    1.096688658503603E+00
    1.122293916212200E+00
    1.140263862623760E+00
    1.090785443489135E+00
    1.138547818145916E+00
    1.124573689668144E+00
    1.095376012829454E+00
    1.148139397350119E+00
    1.107240660588206E+00
    1.108811447270726E+00
    1.147623386266032E+00
    1.094490749388119E+00
    1.126265777550431E+00
    1.137185134585314E+00
    1.090903687361312E+00
    1.141469458623640E+00
    1.120574032175911E+00
    1.097767936831783E+00
    1.148961372142661E+00
    1.103756739066182E+00
    1.112617879207176E+00
    1.146050444400995E+00
    1.092773978388755E+00
    1.130119458058793E+00
    1.133782272239458E+00
    1.091570726071176E+00
    1.143986156791083E+00
    1.116563547679628E+00
    1.100579186872064E+00
    1.149237097253274E+00
    1.100579186872064E+00
    1.116563547679629E+00
    1.143986156791082E+00
    1.091570726071175E+00
    1.133782272239458E+00
    1.130119458058791E+00
    1.092773978388756E+00
    1.146050444400997E+00
    1.112617879207175E+00
    1.103756739066183E+00
    1.148961372142661E+00
    1.097767936831782E+00
    1.120574032175913E+00
    1.141469458623639E+00
    1.090903687361313E+00
    1.137185134585316E+00
    1.126265777550429E+00
    1.094490749388120E+00
    1.147623386266033E+00
    1.108811447270725E+00
    1.107240660588207E+00
    1.148139397350117E+00
    1.095376012829453E+00
    1.124573689668146E+00
    1.138547818145915E+00
    1.090785443489135E+00
    1.140263862623762E+00
    1.122293916212198E+00
    1.096688658503604E+00
    1.148675314627730E+00
    1.105216046197713E+00
    1.110965240082546E+00
    1.146786676404512E+00
    1.093448529706980E+00
    1.128487081340025E+00
    1.135276341351296E+00
    1.091218224690050E+00
    1.142960387482803E+00
    1.118278788588271E+00
    1.099326250270000E+00
    1.149186388729569E+00
    1.101899489995115E+00
    1.114860227066796E+00
    1.144928723407268E+00
    1.092021842338617E+00
    1.132240395462413E+00
    1.131716732607572E+00
    1.092193868139720E+00
    1.145223849146577E+00
    1.114296125282042E+00
    1.102353776227313E+00
    1.149146969039830E+00
    1.098924333287825E+00
    1.118852156948507E+00
    1.142600581802763E+00
    1.091122859930095E+00
    1.135762839579916E+00
    1.127936130831177E+00
    1.093693971915699E+00
    1.147011555742342E+00
    1.110421044577047E+00
    1.105714133242339E+00
    1.148557799065858E+00
    1.096346691455908E+00
    1.122865736664304E+00
    1.139846163412741E+00
    1.090768538475499E+00
    1.138987975749979E+00
    1.124005843158654E+00
    1.095690242081969E+00
    1.148289788765516E+00
    1.106726635607052E+00
    1.109343940549084E+00
    1.147429991330544E+00
    1.094215182224517E+00
    1.126825264806381E+00
    1.136717420201425E+00
    1.083314643963164E+00
    1.122801502881142E+00
    1.093820502140104E+00
    1.127659494931034E+00
    1.136003821497679E+00
    1.091079350177506E+00
    1.142417402803462E+00
    1.119139020894818E+00
    1.098726412135755E+00
    1.149123044309071E+00
    1.102583481500846E+00
    1.114014885436907E+00
    1.145367772378579E+00
    1.092283905269396E+00
    1.131453194609792E+00
    1.132500469847753E+00
    1.091939870247395E+00
    1.144777549344796E+00
    1.115143034637110E+00
    1.101674952821507E+00
    1.149201879889197E+00
    1.099530207362508E+00
    1.117992339436785E+00
    1.143136979484719E+00
    1.091270070505961E+00
    1.135030871930153E+00
    1.128761342846968E+00
    1.093329641378897E+00
    1.146670358621104E+00
    1.111238657153031E+00
    1.104969128069849E+00
    1.148729929494041E+00
    1.096863020515282E+00
    1.122007660563217E+00
    1.140469792637491E+00
    1.090798120110803E+00
    1.138325047178496E+00
    1.124856965362890E+00
    1.095222450655206E+00
    1.148060129752605E+00
    1.107499530152246E+00
    1.108546805390210E+00
    1.147716094730606E+00
    1.094632227621422E+00
    1.125985114563095E+00
    1.137416518499152E+00
    1.090876955690928E+00
    1.141273587864245E+00
    1.120860979105182E+00
    1.097582597196541E+00
    1.148920649822495E+00
    1.103996178502320E+00
    1.112340505068968E+00
    1.146179497859894E+00
    1.092879904377575E+00
    1.129849681407270E+00
    1.134034745847567E+00
    1.091505090303306E+00
    1.143820880620613E+00
    1.116848753645821E+00
    1.100365565525832E+00
    1.149235688287131E+00
    1.100794680036686E+00
    1.116278672925863E+00
    1.144149121125834E+00
    1.091639101911636E+00
    1.133528470267264E+00
    1.130388259375883E+00
    1.092670676500565E+00
    1.145918880146047E+00
    1.112895964849550E+00
    1.103518865189340E+00
    1.148999303105500E+00
    1.097955419239546E+00
    1.120287029920227E+00
    1.141663260111925E+00
    1.090933223394868E+00
    1.136952094332439E+00
    1.126545836629084E+00
    1.094351729789486E+00
    1.147528015401999E+00
    1.109077167527240E+00
    1.106983020795856E+00
    1.148215952813946E+00
    1.095531948314837E+00
    1.124289973151671E+00
    1.138768801436020E+00
    1.090775582627230E+00
    1.140055979536777E+00
    1.122579950768763E+00
    1.096516543287539E+00
    1.148617935974910E+00
    1.105464389233816E+00
    1.110692693801025E+00
    1.146900412432297E+00
    1.093569977121032E+00
    1.128212001830516E+00
    1.135520338406866E+00
    1.091169152921549E+00
    1.142781582510953E+00
    1.118565403633697E+00
    1.099124285756518E+00
    1.149168084525047E+00
    1.102125771733552E+00
    1.114577914878494E+00
    1.145077494787493E+00
    1.092106511022906E+00
    1.131979141322280E+00
    1.131979141322279E+00
    1.092106511022907E+00
    1.145077494787494E+00
    1.114577914878494E+00
    1.102125771733553E+00
    1.149168084525047E+00
    1.099124285756518E+00
    1.118565403633698E+00
    1.142781582510953E+00
    1.091169152921549E+00
    1.135520338406866E+00
    1.128212001830515E+00
    1.093569977121032E+00