 title = "grid"
 variables = "x","y",
 zone N=          81 ,E=         128 ,ET=quadrilateral,F=FEPOINT
   0.0000000000000000        0.0000000000000000     
  0.12500000000000000        0.0000000000000000     
  0.25000000000000000        0.0000000000000000     
  0.37500000000000000        0.0000000000000000     
  0.50000000000000000        0.0000000000000000     
  0.62500000000000000        0.0000000000000000     
  0.75000000000000000        0.0000000000000000     
  0.87500000000000000        0.0000000000000000     
   1.0000000000000000        0.0000000000000000     
   0.0000000000000000       0.12500000000000000     
  0.12500000000000000       0.12500000000000000     
  0.25000000000000000       0.12500000000000000     
  0.37500000000000000       0.12500000000000000     
  0.50000000000000000       0.12500000000000000     
  0.62500000000000000       0.12500000000000000     
  0.75000000000000000       0.12500000000000000     
  0.87500000000000000       0.12500000000000000     
   1.0000000000000000       0.12500000000000000     
   0.0000000000000000       0.25000000000000000     
  0.12500000000000000       0.25000000000000000     
  0.25000000000000000       0.25000000000000000     
  0.37500000000000000       0.25000000000000000     
  0.50000000000000000       0.25000000000000000     
  0.62500000000000000       0.25000000000000000     
  0.75000000000000000       0.25000000000000000     
  0.87500000000000000       0.25000000000000000     
   1.0000000000000000       0.25000000000000000     
   0.0000000000000000       0.37500000000000000     
  0.12500000000000000       0.37500000000000000     
  0.25000000000000000       0.37500000000000000     
  0.37500000000000000       0.37500000000000000     
  0.50000000000000000       0.37500000000000000     
  0.62500000000000000       0.37500000000000000     
  0.75000000000000000       0.37500000000000000     
  0.87500000000000000       0.37500000000000000     
   1.0000000000000000       0.37500000000000000     
   0.0000000000000000       0.50000000000000000     
  0.12500000000000000       0.50000000000000000     
  0.25000000000000000       0.50000000000000000     
  0.37500000000000000       0.50000000000000000     
  0.50000000000000000       0.50000000000000000     
  0.62500000000000000       0.50000000000000000     
  0.75000000000000000       0.50000000000000000     
  0.87500000000000000       0.50000000000000000     
   1.0000000000000000       0.50000000000000000     
   0.0000000000000000       0.62500000000000000     
  0.12500000000000000       0.62500000000000000     
  0.25000000000000000       0.62500000000000000     
  0.37500000000000000       0.62500000000000000     
  0.50000000000000000       0.62500000000000000     
  0.62500000000000000       0.62500000000000000     
  0.75000000000000000       0.62500000000000000     
  0.87500000000000000       0.62500000000000000     
   1.0000000000000000       0.62500000000000000     
   0.0000000000000000       0.75000000000000000     
  0.12500000000000000       0.75000000000000000     
  0.25000000000000000       0.75000000000000000     
  0.37500000000000000       0.75000000000000000     
  0.50000000000000000       0.75000000000000000     
  0.62500000000000000       0.75000000000000000     
  0.75000000000000000       0.75000000000000000     
  0.87500000000000000       0.75000000000000000     
   1.0000000000000000       0.75000000000000000     
   0.0000000000000000       0.87500000000000000     
  0.12500000000000000       0.87500000000000000     
  0.25000000000000000       0.87500000000000000     
  0.37500000000000000       0.87500000000000000     
  0.50000000000000000       0.87500000000000000     
  0.62500000000000000       0.87500000000000000     
  0.75000000000000000       0.87500000000000000     
  0.87500000000000000       0.87500000000000000     
   1.0000000000000000       0.87500000000000000     
   0.0000000000000000        1.0000000000000000     
  0.12500000000000000        1.0000000000000000     
  0.25000000000000000        1.0000000000000000     
  0.37500000000000000        1.0000000000000000     
  0.50000000000000000        1.0000000000000000     
  0.62500000000000000        1.0000000000000000     
  0.75000000000000000        1.0000000000000000     
  0.87500000000000000        1.0000000000000000     
   1.0000000000000000        1.0000000000000000     
           1           2          11          11
           1          11          10          10
           2           3          12          12
           2          12          11          11
           3           4          13          13
           3          13          12          12
           4           5          14          14
           4          14          13          13
           5           6          15          15
           5          15          14          14
           6           7          16          16
           6          16          15          15
           7           8          17          17
           7          17          16          16
           8           9          18          18
           8          18          17          17
          10          11          20          20
          10          20          19          19
          11          12          21          21
          11          21          20          20
          12          13          22          22
          12          22          21          21
          13          14          23          23
          13          23          22          22
          14          15          24          24
          14          24          23          23
          15          16          25          25
          15          25          24          24
          16          17          26          26
          16          26          25          25
          17          18          27          27
          17          27          26          26
          19          20          29          29
          19          29          28          28
          20          21          30          30
          20          30          29          29
          21          22          31          31
          21          31          30          30
          22          23          32          32
          22          32          31          31
          23          24          33          33
          23          33          32          32
          24          25          34          34
          24          34          33          33
          25          26          35          35
          25          35          34          34
          26          27          36          36
          26          36          35          35
          28          29          38          38
          28          38          37          37
          29          30          39          39
          29          39          38          38
          30          31          40          40
          30          40          39          39
          31          32          41          41
          31          41          40          40
          32          33          42          42
          32          42          41          41
          33          34          43          43
          33          43          42          42
          34          35          44          44
          34          44          43          43
          35          36          45          45
          35          45          44          44
          37          38          47          47
          37          47          46          46
          38          39          48          48
          38          48          47          47
          39          40          49          49
          39          49          48          48
          40          41          50          50
          40          50          49          49
          41          42          51          51
          41          51          50          50
          42          43          52          52
          42          52          51          51
          43          44          53          53
          43          53          52          52
          44          45          54          54
          44          54          53          53
          46          47          56          56
          46          56          55          55
          47          48          57          57
          47          57          56          56
          48          49          58          58
          48          58          57          57
          49          50          59          59
          49          59          58          58
          50          51          60          60
          50          60          59          59
          51          52          61          61
          51          61          60          60
          52          53          62          62
          52          62          61          61
          53          54          63          63
          53          63          62          62
          55          56          65          65
          55          65          64          64
          56          57          66          66
          56          66          65          65
          57          58          67          67
          57          67          66          66
          58          59          68          68
          58          68          67          67
          59          60          69          69
          59          69          68          68
          60          61          70          70
          60          70          69          69
          61          62          71          71
          61          71          70          70
          62          63          72          72
          62          72          71          71
          64          65          74          74
          64          74          73          73
          65          66          75          75
          65          75          74          74
          66          67          76          76
          66          76          75          75
          67          68          77          77
          67          77          76          76
          68          69          78          78
          68          78          77          77
          69          70          79          79
          69          79          78          78
          70          71          80          80
          70          80          79          79
          71          72          81          81
          71          81          80          80
