 title = "grid"
 variables = "x","y",
 zone N=         289 ,E=         512 ,ET=quadrilateral,F=FEPOINT
   0.0000000000000000        0.0000000000000000     
   6.2500000000000000E-002   0.0000000000000000     
  0.12500000000000000        0.0000000000000000     
  0.18750000000000000        0.0000000000000000     
  0.25000000000000000        0.0000000000000000     
  0.31250000000000000        0.0000000000000000     
  0.37500000000000000        0.0000000000000000     
  0.43750000000000000        0.0000000000000000     
  0.50000000000000000        0.0000000000000000     
  0.56250000000000000        0.0000000000000000     
  0.62500000000000000        0.0000000000000000     
  0.68750000000000000        0.0000000000000000     
  0.75000000000000000        0.0000000000000000     
  0.81250000000000000        0.0000000000000000     
  0.87500000000000000        0.0000000000000000     
  0.93750000000000000        0.0000000000000000     
   1.0000000000000000        0.0000000000000000     
   0.0000000000000000        6.2500000000000000E-002
   6.2500000000000000E-002   6.2500000000000000E-002
  0.12500000000000000        6.2500000000000000E-002
  0.18750000000000000        6.2500000000000000E-002
  0.25000000000000000        6.2500000000000000E-002
  0.31250000000000000        6.2500000000000000E-002
  0.37500000000000000        6.2500000000000000E-002
  0.43750000000000000        6.2500000000000000E-002
  0.50000000000000000        6.2500000000000000E-002
  0.56250000000000000        6.2500000000000000E-002
  0.62500000000000000        6.2500000000000000E-002
  0.68750000000000000        6.2500000000000000E-002
  0.75000000000000000        6.2500000000000000E-002
  0.81250000000000000        6.2500000000000000E-002
  0.87500000000000000        6.2500000000000000E-002
  0.93750000000000000        6.2500000000000000E-002
   1.0000000000000000        6.2500000000000000E-002
   0.0000000000000000       0.12500000000000000     
   6.2500000000000000E-002  0.12500000000000000     
  0.12500000000000000       0.12500000000000000     
  0.18750000000000000       0.12500000000000000     
  0.25000000000000000       0.12500000000000000     
  0.31250000000000000       0.12500000000000000     
  0.37500000000000000       0.12500000000000000     
  0.43750000000000000       0.12500000000000000     
  0.50000000000000000       0.12500000000000000     
  0.56250000000000000       0.12500000000000000     
  0.62500000000000000       0.12500000000000000     
  0.68750000000000000       0.12500000000000000     
  0.75000000000000000       0.12500000000000000     
  0.81250000000000000       0.12500000000000000     
  0.87500000000000000       0.12500000000000000     
  0.93750000000000000       0.12500000000000000     
   1.0000000000000000       0.12500000000000000     
   0.0000000000000000       0.18750000000000000     
   6.2500000000000000E-002  0.18750000000000000     
  0.12500000000000000       0.18750000000000000     
  0.18750000000000000       0.18750000000000000     
  0.25000000000000000       0.18750000000000000     
  0.31250000000000000       0.18750000000000000     
  0.37500000000000000       0.18750000000000000     
  0.43750000000000000       0.18750000000000000     
  0.50000000000000000       0.18750000000000000     
  0.56250000000000000       0.18750000000000000     
  0.62500000000000000       0.18750000000000000     
  0.68750000000000000       0.18750000000000000     
  0.75000000000000000       0.18750000000000000     
  0.81250000000000000       0.18750000000000000     
  0.87500000000000000       0.18750000000000000     
  0.93750000000000000       0.18750000000000000     
   1.0000000000000000       0.18750000000000000     
   0.0000000000000000       0.25000000000000000     
   6.2500000000000000E-002  0.25000000000000000     
  0.12500000000000000       0.25000000000000000     
  0.18750000000000000       0.25000000000000000     
  0.25000000000000000       0.25000000000000000     
  0.31250000000000000       0.25000000000000000     
  0.37500000000000000       0.25000000000000000     
  0.43750000000000000       0.25000000000000000     
  0.50000000000000000       0.25000000000000000     
  0.56250000000000000       0.25000000000000000     
  0.62500000000000000       0.25000000000000000     
  0.68750000000000000       0.25000000000000000     
  0.75000000000000000       0.25000000000000000     
  0.81250000000000000       0.25000000000000000     
  0.87500000000000000       0.25000000000000000     
  0.93750000000000000       0.25000000000000000     
   1.0000000000000000       0.25000000000000000     
   0.0000000000000000       0.31250000000000000     
   6.2500000000000000E-002  0.31250000000000000     
  0.12500000000000000       0.31250000000000000     
  0.18750000000000000       0.31250000000000000     
  0.25000000000000000       0.31250000000000000     
  0.31250000000000000       0.31250000000000000     
  0.37500000000000000       0.31250000000000000     
  0.43750000000000000       0.31250000000000000     
  0.50000000000000000       0.31250000000000000     
  0.56250000000000000       0.31250000000000000     
  0.62500000000000000       0.31250000000000000     
  0.68750000000000000       0.31250000000000000     
  0.75000000000000000       0.31250000000000000     
  0.81250000000000000       0.31250000000000000     
  0.87500000000000000       0.31250000000000000     
  0.93750000000000000       0.31250000000000000     
   1.0000000000000000       0.31250000000000000     
   0.0000000000000000       0.37500000000000000     
   6.2500000000000000E-002  0.37500000000000000     
  0.12500000000000000       0.37500000000000000     
  0.18750000000000000       0.37500000000000000     
  0.25000000000000000       0.37500000000000000     
  0.31250000000000000       0.37500000000000000     
  0.37500000000000000       0.37500000000000000     
  0.43750000000000000       0.37500000000000000     
  0.50000000000000000       0.37500000000000000     
  0.56250000000000000       0.37500000000000000     
  0.62500000000000000       0.37500000000000000     
  0.68750000000000000       0.37500000000000000     
  0.75000000000000000       0.37500000000000000     
  0.81250000000000000       0.37500000000000000     
  0.87500000000000000       0.37500000000000000     
  0.93750000000000000       0.37500000000000000     
   1.0000000000000000       0.37500000000000000     
   0.0000000000000000       0.43750000000000000     
   6.2500000000000000E-002  0.43750000000000000     
  0.12500000000000000       0.43750000000000000     
  0.18750000000000000       0.43750000000000000     
  0.25000000000000000       0.43750000000000000     
  0.31250000000000000       0.43750000000000000     
  0.37500000000000000       0.43750000000000000     
  0.43750000000000000       0.43750000000000000     
  0.50000000000000000       0.43750000000000000     
  0.56250000000000000       0.43750000000000000     
  0.62500000000000000       0.43750000000000000     
  0.68750000000000000       0.43750000000000000     
  0.75000000000000000       0.43750000000000000     
  0.81250000000000000       0.43750000000000000     
  0.87500000000000000       0.43750000000000000     
  0.93750000000000000       0.43750000000000000     
   1.0000000000000000       0.43750000000000000     
   0.0000000000000000       0.50000000000000000     
   6.2500000000000000E-002  0.50000000000000000     
  0.12500000000000000       0.50000000000000000     
  0.18750000000000000       0.50000000000000000     
  0.25000000000000000       0.50000000000000000     
  0.31250000000000000       0.50000000000000000     
  0.37500000000000000       0.50000000000000000     
  0.43750000000000000       0.50000000000000000     
  0.50000000000000000       0.50000000000000000     
  0.56250000000000000       0.50000000000000000     
  0.62500000000000000       0.50000000000000000     
  0.68750000000000000       0.50000000000000000     
  0.75000000000000000       0.50000000000000000     
  0.81250000000000000       0.50000000000000000     
  0.87500000000000000       0.50000000000000000     
  0.93750000000000000       0.50000000000000000     
   1.0000000000000000       0.50000000000000000     
   0.0000000000000000       0.56250000000000000     
   6.2500000000000000E-002  0.56250000000000000     
  0.12500000000000000       0.56250000000000000     
  0.18750000000000000       0.56250000000000000     
  0.25000000000000000       0.56250000000000000     
  0.31250000000000000       0.56250000000000000     
  0.37500000000000000       0.56250000000000000     
  0.43750000000000000       0.56250000000000000     
  0.50000000000000000       0.56250000000000000     
  0.56250000000000000       0.56250000000000000     
  0.62500000000000000       0.56250000000000000     
  0.68750000000000000       0.56250000000000000     
  0.75000000000000000       0.56250000000000000     
  0.81250000000000000       0.56250000000000000     
  0.87500000000000000       0.56250000000000000     
  0.93750000000000000       0.56250000000000000     
   1.0000000000000000       0.56250000000000000     
   0.0000000000000000       0.62500000000000000     
   6.2500000000000000E-002  0.62500000000000000     
  0.12500000000000000       0.62500000000000000     
  0.18750000000000000       0.62500000000000000     
  0.25000000000000000       0.62500000000000000     
  0.31250000000000000       0.62500000000000000     
  0.37500000000000000       0.62500000000000000     
  0.43750000000000000       0.62500000000000000     
  0.50000000000000000       0.62500000000000000     
  0.56250000000000000       0.62500000000000000     
  0.62500000000000000       0.62500000000000000     
  0.68750000000000000       0.62500000000000000     
  0.75000000000000000       0.62500000000000000     
  0.81250000000000000       0.62500000000000000     
  0.87500000000000000       0.62500000000000000     
  0.93750000000000000       0.62500000000000000     
   1.0000000000000000       0.62500000000000000     
   0.0000000000000000       0.68750000000000000     
   6.2500000000000000E-002  0.68750000000000000     
  0.12500000000000000       0.68750000000000000     
  0.18750000000000000       0.68750000000000000     
  0.25000000000000000       0.68750000000000000     
  0.31250000000000000       0.68750000000000000     
  0.37500000000000000       0.68750000000000000     
  0.43750000000000000       0.68750000000000000     
  0.50000000000000000       0.68750000000000000     
  0.56250000000000000       0.68750000000000000     
  0.62500000000000000       0.68750000000000000     
  0.68750000000000000       0.68750000000000000     
  0.75000000000000000       0.68750000000000000     
  0.81250000000000000       0.68750000000000000     
  0.87500000000000000       0.68750000000000000     
  0.93750000000000000       0.68750000000000000     
   1.0000000000000000       0.68750000000000000     
   0.0000000000000000       0.75000000000000000     
   6.2500000000000000E-002  0.75000000000000000     
  0.12500000000000000       0.75000000000000000     
  0.18750000000000000       0.75000000000000000     
  0.25000000000000000       0.75000000000000000     
  0.31250000000000000       0.75000000000000000     
  0.37500000000000000       0.75000000000000000     
  0.43750000000000000       0.75000000000000000     
  0.50000000000000000       0.75000000000000000     
  0.56250000000000000       0.75000000000000000     
  0.62500000000000000       0.75000000000000000     
  0.68750000000000000       0.75000000000000000     
  0.75000000000000000       0.75000000000000000     
  0.81250000000000000       0.75000000000000000     
  0.87500000000000000       0.75000000000000000     
  0.93750000000000000       0.75000000000000000     
   1.0000000000000000       0.75000000000000000     
   0.0000000000000000       0.81250000000000000     
   6.2500000000000000E-002  0.81250000000000000     
  0.12500000000000000       0.81250000000000000     
  0.18750000000000000       0.81250000000000000     
  0.25000000000000000       0.81250000000000000     
  0.31250000000000000       0.81250000000000000     
  0.37500000000000000       0.81250000000000000     
  0.43750000000000000       0.81250000000000000     
  0.50000000000000000       0.81250000000000000     
  0.56250000000000000       0.81250000000000000     
  0.62500000000000000       0.81250000000000000     
  0.68750000000000000       0.81250000000000000     
  0.75000000000000000       0.81250000000000000     
  0.81250000000000000       0.81250000000000000     
  0.87500000000000000       0.81250000000000000     
  0.93750000000000000       0.81250000000000000     
   1.0000000000000000       0.81250000000000000     
   0.0000000000000000       0.87500000000000000     
   6.2500000000000000E-002  0.87500000000000000     
  0.12500000000000000       0.87500000000000000     
  0.18750000000000000       0.87500000000000000     
  0.25000000000000000       0.87500000000000000     
  0.31250000000000000       0.87500000000000000     
  0.37500000000000000       0.87500000000000000     
  0.43750000000000000       0.87500000000000000     
  0.50000000000000000       0.87500000000000000     
  0.56250000000000000       0.87500000000000000     
  0.62500000000000000       0.87500000000000000     
  0.68750000000000000       0.87500000000000000     
  0.75000000000000000       0.87500000000000000     
  0.81250000000000000       0.87500000000000000     
  0.87500000000000000       0.87500000000000000     
  0.93750000000000000       0.87500000000000000     
   1.0000000000000000       0.87500000000000000     
   0.0000000000000000       0.93750000000000000     
   6.2500000000000000E-002  0.93750000000000000     
  0.12500000000000000       0.93750000000000000     
  0.18750000000000000       0.93750000000000000     
  0.25000000000000000       0.93750000000000000     
  0.31250000000000000       0.93750000000000000     
  0.37500000000000000       0.93750000000000000     
  0.43750000000000000       0.93750000000000000     
  0.50000000000000000       0.93750000000000000     
  0.56250000000000000       0.93750000000000000     
  0.62500000000000000       0.93750000000000000     
  0.68750000000000000       0.93750000000000000     
  0.75000000000000000       0.93750000000000000     
  0.81250000000000000       0.93750000000000000     
  0.87500000000000000       0.93750000000000000     
  0.93750000000000000       0.93750000000000000     
   1.0000000000000000       0.93750000000000000     
   0.0000000000000000        1.0000000000000000     
   6.2500000000000000E-002   1.0000000000000000     
  0.12500000000000000        1.0000000000000000     
  0.18750000000000000        1.0000000000000000     
  0.25000000000000000        1.0000000000000000     
  0.31250000000000000        1.0000000000000000     
  0.37500000000000000        1.0000000000000000     
  0.43750000000000000        1.0000000000000000     
  0.50000000000000000        1.0000000000000000     
  0.56250000000000000        1.0000000000000000     
  0.62500000000000000        1.0000000000000000     
  0.68750000000000000        1.0000000000000000     
  0.75000000000000000        1.0000000000000000     
  0.81250000000000000        1.0000000000000000     
  0.87500000000000000        1.0000000000000000     
  0.93750000000000000        1.0000000000000000     
   1.0000000000000000        1.0000000000000000     
           1           2          19          19
           1          19          18          18
           2           3          20          20
           2          20          19          19
           3           4          21          21
           3          21          20          20
           4           5          22          22
           4          22          21          21
           5           6          23          23
           5          23          22          22
           6           7          24          24
           6          24          23          23
           7           8          25          25
           7          25          24          24
           8           9          26          26
           8          26          25          25
           9          10          27          27
           9          27          26          26
          10          11          28          28
          10          28          27          27
          11          12          29          29
          11          29          28          28
          12          13          30          30
          12          30          29          29
          13          14          31          31
          13          31          30          30
          14          15          32          32
          14          32          31          31
          15          16          33          33
          15          33          32          32
          16          17          34          34
          16          34          33          33
          18          19          36          36
          18          36          35          35
          19          20          37          37
          19          37          36          36
          20          21          38          38
          20          38          37          37
          21          22          39          39
          21          39          38          38
          22          23          40          40
          22          40          39          39
          23          24          41          41
          23          41          40          40
          24          25          42          42
          24          42          41          41
          25          26          43          43
          25          43          42          42
          26          27          44          44
          26          44          43          43
          27          28          45          45
          27          45          44          44
          28          29          46          46
          28          46          45          45
          29          30          47          47
          29          47          46          46
          30          31          48          48
          30          48          47          47
          31          32          49          49
          31          49          48          48
          32          33          50          50
          32          50          49          49
          33          34          51          51
          33          51          50          50
          35          36          53          53
          35          53          52          52
          36          37          54          54
          36          54          53          53
          37          38          55          55
          37          55          54          54
          38          39          56          56
          38          56          55          55
          39          40          57          57
          39          57          56          56
          40          41          58          58
          40          58          57          57
          41          42          59          59
          41          59          58          58
          42          43          60          60
          42          60          59          59
          43          44          61          61
          43          61          60          60
          44          45          62          62
          44          62          61          61
          45          46          63          63
          45          63          62          62
          46          47          64          64
          46          64          63          63
          47          48          65          65
          47          65          64          64
          48          49          66          66
          48          66          65          65
          49          50          67          67
          49          67          66          66
          50          51          68          68
          50          68          67          67
          52          53          70          70
          52          70          69          69
          53          54          71          71
          53          71          70          70
          54          55          72          72
          54          72          71          71
          55          56          73          73
          55          73          72          72
          56          57          74          74
          56          74          73          73
          57          58          75          75
          57          75          74          74
          58          59          76          76
          58          76          75          75
          59          60          77          77
          59          77          76          76
          60          61          78          78
          60          78          77          77
          61          62          79          79
          61          79          78          78
          62          63          80          80
          62          80          79          79
          63          64          81          81
          63          81          80          80
          64          65          82          82
          64          82          81          81
          65          66          83          83
          65          83          82          82
          66          67          84          84
          66          84          83          83
          67          68          85          85
          67          85          84          84
          69          70          87          87
          69          87          86          86
          70          71          88          88
          70          88          87          87
          71          72          89          89
          71          89          88          88
          72          73          90          90
          72          90          89          89
          73          74          91          91
          73          91          90          90
          74          75          92          92
          74          92          91          91
          75          76          93          93
          75          93          92          92
          76          77          94          94
          76          94          93          93
          77          78          95          95
          77          95          94          94
          78          79          96          96
          78          96          95          95
          79          80          97          97
          79          97          96          96
          80          81          98          98
          80          98          97          97
          81          82          99          99
          81          99          98          98
          82          83         100         100
          82         100          99          99
          83          84         101         101
          83         101         100         100
          84          85         102         102
          84         102         101         101
          86          87         104         104
          86         104         103         103
          87          88         105         105
          87         105         104         104
          88          89         106         106
          88         106         105         105
          89          90         107         107
          89         107         106         106
          90          91         108         108
          90         108         107         107
          91          92         109         109
          91         109         108         108
          92          93         110         110
          92         110         109         109
          93          94         111         111
          93         111         110         110
          94          95         112         112
          94         112         111         111
          95          96         113         113
          95         113         112         112
          96          97         114         114
          96         114         113         113
          97          98         115         115
          97         115         114         114
          98          99         116         116
          98         116         115         115
          99         100         117         117
          99         117         116         116
         100         101         118         118
         100         118         117         117
         101         102         119         119
         101         119         118         118
         103         104         121         121
         103         121         120         120
         104         105         122         122
         104         122         121         121
         105         106         123         123
         105         123         122         122
         106         107         124         124
         106         124         123         123
         107         108         125         125
         107         125         124         124
         108         109         126         126
         108         126         125         125
         109         110         127         127
         109         127         126         126
         110         111         128         128
         110         128         127         127
         111         112         129         129
         111         129         128         128
         112         113         130         130
         112         130         129         129
         113         114         131         131
         113         131         130         130
         114         115         132         132
         114         132         131         131
         115         116         133         133
         115         133         132         132
         116         117         134         134
         116         134         133         133
         117         118         135         135
         117         135         134         134
         118         119         136         136
         118         136         135         135
         120         121         138         138
         120         138         137         137
         121         122         139         139
         121         139         138         138
         122         123         140         140
         122         140         139         139
         123         124         141         141
         123         141         140         140
         124         125         142         142
         124         142         141         141
         125         126         143         143
         125         143         142         142
         126         127         144         144
         126         144         143         143
         127         128         145         145
         127         145         144         144
         128         129         146         146
         128         146         145         145
         129         130         147         147
         129         147         146         146
         130         131         148         148
         130         148         147         147
         131         132         149         149
         131         149         148         148
         132         133         150         150
         132         150         149         149
         133         134         151         151
         133         151         150         150
         134         135         152         152
         134         152         151         151
         135         136         153         153
         135         153         152         152
         137         138         155         155
         137         155         154         154
         138         139         156         156
         138         156         155         155
         139         140         157         157
         139         157         156         156
         140         141         158         158
         140         158         157         157
         141         142         159         159
         141         159         158         158
         142         143         160         160
         142         160         159         159
         143         144         161         161
         143         161         160         160
         144         145         162         162
         144         162         161         161
         145         146         163         163
         145         163         162         162
         146         147         164         164
         146         164         163         163
         147         148         165         165
         147         165         164         164
         148         149         166         166
         148         166         165         165
         149         150         167         167
         149         167         166         166
         150         151         168         168
         150         168         167         167
         151         152         169         169
         151         169         168         168
         152         153         170         170
         152         170         169         169
         154         155         172         172
         154         172         171         171
         155         156         173         173
         155         173         172         172
         156         157         174         174
         156         174         173         173
         157         158         175         175
         157         175         174         174
         158         159         176         176